Title

44 atoms
43 bonds
81 angles
129 dihedrals
0 impropers

6 atom types
5 bond types
4 angle types
15 dihedral types
-7.064 22.936 xlo xhi
-6.107 23.893 ylo yhi
-2.2 27.8 zlo zhi
0.0 0.0 0.0 xy xz yz

Masses

1	30.973762
2	15.99943
3	15.99943
4	12.01078
5	1.007947
6	1.007947


Pair Coeffs

1	0.2	3.7417746
2	0.16846514	3.0251065
3	0.2102061	3.0398122
4	0.10884061	3.3795318
5	0.015779483	2.6445434
6	0.016409246	2.5832257

Bond Coeffs

1 harmonic	251.9537706089	1.65315684971
2 harmonic	655.125098875	1.50900232257
3 harmonic	217.15696764085	1.421832315661
4 harmonic	209.99346340955	1.527940216866
5 harmonic	359.82124644905	1.090139506109


Angle Coeffs

1 harmonic	118.9256094675	111.9874516071
2 harmonic	68.3761610083	108.3772583309
3 harmonic	60.59416350775	110.0631999136
4 harmonic	37.541272178735	108.5839257083


Dihedral Coeffs

1 fourier 1	0.2473392733270333	3	0
2 fourier 1	-0.7591901835796	3	0
3 fourier 1	-1.569732559885	2	0
4 fourier 1	8.204059562093001	1	0
5 fourier 1	0.1526959283148	3	0
6 fourier 1	0.1006464828354	3	0
7 fourier 1	0.482791305955	1	0
8 fourier 1	0.4282832518251	3	0
9 fourier 1	9.382773933827	1	0
10 fourier 1	-1.899750980497	2	0
11 fourier 1	0.08586880062944	3	0
12 fourier 1	0.42948937236	3	0
13 fourier 1	0.2543919562345	2	180
14 fourier 1	0.8736160241398	1	180
15 fourier 1	0.2516073078789	3	0


Atoms

1	2	1	1.6065	-0.019	0.962	0.863
2	2	2	-0.57353305	1.247	1.24	-0.11
3	2	2	-0.57353305	-1.288	1.206	-0.115
4	2	2	-0.57353305	0.003	-0.639	1.107
5	2	3	-0.80530005	-0.032	1.782	2.122
6	2	4	-0.093400045	3.565	1.335	-0.69
7	2	4	-0.093400045	-3.605	1.238	-0.704
8	2	4	-0.093400045	0.035	-2.958	0.522
9	2	4	0.16606695	2.551	1.008	0.396
10	2	4	0.16606695	-2.586	0.938	0.386
11	2	4	0.16606695	0.017	-1.528	0.003
12	2	4	-0.079400045	4.996	1.092	-0.218
13	2	4	-0.079400045	-5.033	0.986	-0.226
14	2	4	-0.079400045	0.067	-3.972	-0.618
15	2	4	-0.094433045	6.003	1.379	-1.319
16	2	4	-0.094433045	-6.049	1.329	-1.304
17	2	4	-0.094433045	0.129	-5.398	-0.095
18	2	5	0.054366955	3.351	0.729	-1.579
19	2	5	0.054366955	3.441	2.38	-1.004
20	2	5	0.054366955	-3.492	2.281	-1.028
21	2	5	0.054366955	-3.386	0.625	-1.587
22	2	5	0.054366955	0.906	-3.094	1.175
23	2	5	0.054366955	-0.844	-3.127	1.157
24	2	6	0.055199955	2.641	-0.039	0.703
25	2	6	0.055199955	2.71	1.643	1.273
26	2	6	0.055199955	-2.765	1.57	1.263
27	2	6	0.055199955	-2.651	-0.111	0.693
28	2	6	0.055199955	0.904	-1.335	-0.609
29	2	6	0.055199955	-0.872	-1.36	-0.613
30	2	5	0.040199955	5.109	0.051	0.108
31	2	5	0.040199955	5.215	1.728	0.648
32	2	5	0.040199955	-5.239	1.59	0.665
33	2	5	0.040199955	-5.149	-0.065	0.06
34	2	5	0.040199955	0.939	-3.787	-1.257
35	2	5	0.040199955	-0.825	-3.855	-1.245
36	2	5	0.036032955	5.831	0.734	-2.186
37	2	5	0.036032955	5.938	2.421	-1.648
38	2	5	0.036032955	7.021	1.2	-0.959
39	2	5	0.036032955	-5.981	2.384	-1.587
40	2	5	0.036032955	-5.89	0.721	-2.2
41	2	5	0.036032955	-7.064	1.139	-0.941
42	2	5	0.036032955	1.029	-5.556	0.508
43	2	5	0.036032955	-0.745	-5.627	0.525
44	2	5	0.036032955	0.149	-6.107	-0.928

Bonds

1	1	1	2
2	1	1	3
3	1	1	4
4	2	1	5
5	3	2	9
6	3	3	10
7	3	4	11
8	4	6	9
9	4	6	12
10	5	6	18
11	5	6	19
12	4	7	10
13	4	7	13
14	5	7	20
15	5	7	21
16	4	8	11
17	4	8	14
18	5	8	22
19	5	8	23
20	5	9	24
21	5	9	25
22	5	10	26
23	5	10	27
24	5	11	28
25	5	11	29
26	4	12	15
27	5	12	30
28	5	12	31
29	4	13	16
30	5	13	32
31	5	13	33
32	4	14	17
33	5	14	34
34	5	14	35
35	5	15	36
36	5	15	37
37	5	15	38
38	5	16	39
39	5	16	40
40	5	16	41
41	5	17	42
42	5	17	43
43	5	17	44

Angles

<<<<<<< Updated upstream
1	3	12	6	19
2	3	13	7	20
3	1	1	4	11
4	2	3	1	4
5	3	10	7	13
6	3	8	14	34
7	3	17	14	35
8	4	32	13	33
9	3	13	7	21
10	3	6	9	24
11	4	36	15	37
12	2	3	1	5
13	4	39	16	40
14	3	7	13	33
15	3	4	11	8
16	3	8	14	35
17	3	3	10	26
18	3	14	17	42
19	3	6	12	30
20	4	20	7	21
21	4	36	15	38
22	4	39	16	41
23	1	1	2	9
24	3	6	12	15
25	3	3	10	27
26	3	12	15	37
27	3	9	6	19
28	3	14	17	43
29	3	6	12	31
30	3	3	10	7
31	2	2	1	3
32	1	1	3	10
33	4	22	8	23
34	3	4	11	28
35	3	2	9	24
36	4	26	10	27
37	3	12	15	38
38	3	14	8	22
39	3	13	16	39
40	4	34	14	35
41	2	2	1	4
42	4	40	16	41
43	4	42	17	43
44	4	43	17	44
45	4	24	9	25
46	3	6	9	25
47	3	4	11	29
48	3	8	11	28
49	3	9	6	12
50	3	13	16	40
51	3	11	8	14
52	4	42	17	44
53	3	15	12	30
54	4	37	15	38
55	4	18	6	19
56	3	8	11	29
57	4	30	12	31
58	3	15	12	31
59	3	14	17	44
60	3	16	13	32
61	3	8	14	17
62	3	11	8	22
63	4	28	11	29
64	2	4	1	5
65	3	17	14	34
66	3	7	13	16
67	3	2	9	25
68	3	7	10	26
69	3	14	8	23
70	3	7	13	32
71	3	16	13	33
72	3	11	8	23
73	2	2	1	5
74	3	10	7	20
75	3	12	6	18
76	3	7	10	27
77	3	13	16	41
78	3	2	9	6
79	3	12	15	36
80	3	9	6	18
81	3	10	7	21

Dihedrals

1	11	17	14	8	22
2	1	1	4	11	8
3	15	23	8	11	28
4	11	14	8	11	28
5	15	35	14	17	42
6	6	3	10	7	21
6	7	3	10	7	21
7	1	1	4	11	29
8	6	2	9	6	18
8	7	2	9	6	18
9	15	18	6	9	24
10	15	31	12	15	36
11	15	34	14	17	42
12	6	4	11	8	22
12	7	4	11	8	22
13	1	1	2	9	24
14	2	3	1	4	11
14	3	3	1	4	11
14	4	3	1	4	11
15	11	14	8	11	29
16	15	19	6	9	24
17	11	8	14	17	44
18	2	3	1	2	9
18	3	3	1	2	9
18	4	3	1	2	9
19	15	18	6	9	25
20	15	30	12	15	37
21	15	31	12	15	37
22	2	2	1	4	11
22	3	2	1	4	11
22	4	2	1	4	11
23	6	4	11	8	23
23	7	4	11	8	23
24	15	20	7	10	26
25	1	1	2	9	25
26	2	4	1	2	9
26	3	4	1	2	9
26	4	4	1	2	9
27	15	23	8	14	35
28	11	7	13	16	39
29	15	22	8	14	35
30	12	11	8	14	17
30	13	11	8	14	17
30	14	11	8	14	17
31	11	16	13	7	21
32	15	19	6	9	25
33	15	30	12	15	38
34	2	4	1	3	10
34	3	4	1	3	10
34	4	4	1	3	10
35	11	17	14	8	23
36	15	23	8	11	29
37	15	35	14	17	43
38	15	32	13	16	39
39	6	2	9	6	19
39	7	2	9	6	19
40	1	1	3	10	26
41	11	9	6	12	30
42	15	34	14	17	43
43	15	21	7	10	26
44	2	2	1	3	10
44	3	2	1	3	10
44	4	2	1	3	10
45	15	33	13	16	39
46	15	35	14	17	44
47	11	6	12	15	36
48	12	9	6	12	15
48	13	9	6	12	15
48	14	9	6	12	15
49	15	21	7	13	32
50	15	22	8	11	28
51	15	31	12	15	38
52	15	20	7	13	32
53	1	1	3	10	27
54	11	9	6	12	31
55	8	5	1	4	11
55	9	5	1	4	11
55	10	5	1	4	11
56	12	10	7	13	16
56	13	10	7	13	16
56	14	10	7	13	16
57	15	34	14	17	44
58	15	21	7	10	27
59	1	1	3	10	7
60	15	20	7	10	27
61	11	10	7	13	32
62	15	33	13	16	40
63	11	12	6	9	24
64	11	7	13	16	40
65	11	13	7	10	26
66	1	1	2	9	6
67	15	18	6	12	30
68	8	5	1	3	10
68	9	5	1	3	10
68	10	5	1	3	10
69	15	21	7	13	33
70	11	15	12	6	18
71	11	11	8	14	34
72	5	2	9	6	12
73	11	10	7	13	33
74	6	3	10	7	20
74	7	3	10	7	20
75	11	8	14	17	42
76	15	19	6	12	30
77	15	18	6	12	31
78	11	15	12	6	19
79	11	11	8	14	35
80	15	32	13	16	40
81	11	8	14	17	43
82	15	30	12	15	36
83	15	19	6	12	31
84	8	5	1	2	9
84	9	5	1	2	9
84	10	5	1	2	9
85	11	6	12	15	38
86	15	23	8	14	34
87	11	6	12	15	37
88	15	32	13	16	41
89	15	22	8	14	34
90	11	16	13	7	20
91	15	22	8	11	29
92	15	20	7	13	33
93	5	3	10	7	13
94	5	4	11	8	14
95	15	33	13	16	41
96	1	1	4	11	28
97	11	12	6	9	25
98	11	7	13	16	41
99	11	13	7	10	27
=======
1	3	2	9	24
2	3	10	7	13
3	3	3	10	26
4	3	7	13	33
5	3	2	9	6
6	3	14	17	44
7	1	1	4	11
8	2	2	1	4
9	3	8	14	35
10	3	8	11	28
11	4	32	13	33
12	3	8	14	34
13	1	1	3	10
14	3	16	13	33
15	3	11	8	14
16	3	12	15	36
17	3	13	16	41
18	3	13	16	40
19	3	3	10	27
20	2	4	1	5
21	3	6	9	24
22	3	10	7	21
23	3	13	7	20
24	3	12	6	19
25	3	3	10	7
26	3	7	13	32
27	4	37	15	38
28	3	12	15	38
29	3	4	11	29
30	3	7	13	16
31	4	30	12	31
32	3	13	16	39
33	3	6	12	31
34	3	15	12	31
35	3	12	6	18
36	4	22	8	23
37	3	6	12	15
38	3	12	15	37
39	4	40	16	41
40	3	14	17	43
41	2	3	1	4
42	3	6	12	30
43	4	36	15	38
44	3	15	12	30
45	3	14	8	23
46	4	24	9	25
47	3	2	9	25
48	4	26	10	27
49	3	16	13	32
50	4	36	15	37
51	3	11	8	23
52	3	14	8	22
53	2	2	1	5
54	3	4	11	8
55	2	2	1	3
56	3	7	10	27
57	3	11	8	22
58	4	39	16	41
59	4	39	16	40
60	3	7	10	26
61	3	8	11	29
62	3	9	6	19
63	4	42	17	44
64	4	42	17	43
65	3	17	14	35
66	3	9	6	18
67	4	43	17	44
68	3	17	14	34
69	3	9	6	12
70	3	6	9	25
71	3	13	7	21
72	3	10	7	20
73	4	28	11	29
74	3	8	14	17
75	2	3	1	5
76	4	18	6	19
77	3	4	11	28
78	3	14	17	42
79	4	20	7	21
80	4	34	14	35
81	1	1	2	9

Dihedrals

1	6	4	11	8	23
1	7	4	11	8	23
2	11	10	7	13	33
3	15	34	14	17	42
4	11	11	8	14	35
5	15	20	7	10	26
6	2	4	1	3	10
6	3	4	1	3	10
6	4	4	1	3	10
7	15	19	6	12	31
8	11	17	14	8	23
9	1	1	2	9	25
10	11	11	8	14	34
11	15	31	12	15	36
12	8	5	1	2	9
12	9	5	1	2	9
12	10	5	1	2	9
13	15	19	6	12	30
14	11	17	14	8	22
15	1	1	4	11	8
16	6	2	9	6	18
16	7	2	9	6	18
17	11	9	6	12	31
18	15	22	8	14	35
19	15	30	12	15	36
20	1	1	3	10	27
21	15	22	8	11	28
22	15	23	8	11	29
23	12	9	6	12	15
23	13	9	6	12	15
23	14	9	6	12	15
24	5	2	9	6	12
25	1	1	4	11	28
26	15	35	14	17	43
27	15	20	7	13	33
28	11	9	6	12	30
29	15	22	8	14	34
30	1	1	3	10	26
31	15	19	6	9	24
32	15	34	14	17	44
33	15	21	7	13	33
34	15	32	13	16	39
35	11	14	8	11	28
36	11	16	13	7	20
37	15	31	12	15	37
38	8	5	1	4	11
38	9	5	1	4	11
38	10	5	1	4	11
39	15	18	6	9	24
40	5	3	10	7	13
41	6	3	10	7	21
41	7	3	10	7	21
42	11	6	12	15	36
43	8	5	1	3	10
43	9	5	1	3	10
43	10	5	1	3	10
44	15	30	12	15	37
45	6	2	9	6	19
45	7	2	9	6	19
46	11	12	6	9	25
47	15	32	13	16	41
48	1	1	2	9	6
49	15	18	6	12	31
50	15	32	13	16	40
51	15	33	13	16	41
52	11	15	12	6	19
53	15	33	13	16	40
54	11	8	14	17	42
55	11	13	7	10	26
56	5	4	11	8	14
57	12	11	8	14	17
57	13	11	8	14	17
57	14	11	8	14	17
58	15	18	6	12	30
59	11	15	12	6	18
60	15	31	12	15	38
61	15	23	8	14	35
62	11	6	12	15	37
63	1	1	3	10	7
64	2	3	1	2	9
64	3	3	1	2	9
64	4	3	1	2	9
65	15	21	7	13	32
66	15	30	12	15	38
67	15	33	13	16	39
68	2	2	1	3	10
68	3	2	1	3	10
68	4	2	1	3	10
69	11	10	7	13	32
70	15	23	8	14	34
71	15	34	14	17	43
72	12	10	7	13	16
72	13	10	7	13	16
72	14	10	7	13	16
73	1	1	2	9	24
74	11	13	7	10	27
75	11	12	6	9	24
76	15	22	8	11	29
77	11	8	14	17	44
78	1	1	4	11	29
79	15	35	14	17	42
80	11	7	13	16	40
81	11	6	12	15	38
82	2	3	1	4	11
82	3	3	1	4	11
82	4	3	1	4	11
83	15	19	6	9	25
84	15	23	8	11	28
85	11	14	8	11	29
86	11	16	13	7	21
87	15	21	7	10	27
88	15	20	7	13	32
89	2	4	1	2	9
89	3	4	1	2	9
89	4	4	1	2	9
90	15	18	6	9	25
91	6	4	11	8	22
91	7	4	11	8	22
92	11	7	13	16	39
93	15	21	7	10	26
94	6	3	10	7	20
94	7	3	10	7	20
95	15	35	14	17	44
96	11	7	13	16	41
97	2	2	1	4	11
97	3	2	1	4	11
97	4	2	1	4	11
98	11	8	14	17	43
99	15	20	7	10	27
>>>>>>> Stashed changes
